<?xml version="1.0"?>
<VTKFile byte_order="LittleEndian" type="UnstructuredGrid" version="0.1">
<UnstructuredGrid>
<Piece NumberOfPoints="10" NumberOfCells="5">
<PointData>
<DataArray type="Float64" Name="Flash Strength Points" format="ascii">
1 1 1 1 1 1 0 0 0 0 
</DataArray>
</PointData>
<CellData>
<DataArray type="Float64" Name="Cell Colour" format="ascii">
1 2 3 4 0 
</DataArray>
</CellData>
<Points>
<DataArray type="Float64" NumberOfComponents="3" format="ascii">
0 0 0 0 3 0 1 2 2 1 3 -2 -2 2 0 -1 1 2 2 -2 -2 2 -2 2 -2 -2 2 -2 -2 -2 
</DataArray>
</Points>
<Cells>
<DataArray type="Int64" Name="connectivity" format="ascii">
5 0 1 2 2 0 1 3 3 0 1 4 4 0 1 5 8 7 6 9 0 
</DataArray>
<DataArray type="Int64" Name="offsets" format="ascii">
4 8 12 16 21 
</DataArray>
<DataArray type="Int8" Name="types" format="ascii">
10 10 10 10 14 
</DataArray>
</Cells>
</Piece>
</UnstructuredGrid>
</VTKFile>
