<?xml version="1.0"?>
<VTKFile byte_order="LittleEndian" type="UnstructuredGrid" version="0.1">
<UnstructuredGrid>
<Piece NumberOfPoints="18" NumberOfCells="21">
<PointData>
<DataArray type="Float64" Name="Point_Data_1" format="ascii">
100 100 100 100 0 0 0 0 -100 -100 -100 -100 0 -100 0 0 0 0 0 
</DataArray>
<DataArray type="Float64" Name="Point_Data_2" format="ascii">
1 1 1 1 1 1 1 1 1 1 1 1 0 1 -1 -1 -1 -1 
</DataArray>
</PointData>
<CellData>
<DataArray type="Float64" Name="Cell_Height_1" format="ascii">
-1 1 -1 1 -1 1 -1 1 -1 1 -1 1 -1 1 -1 1 -1 1 -1 1 0 
</DataArray>
<DataArray type="Float64" Name="Cell_Height_2" format="ascii">
1 2 3 4 5 6 7 8 9 10 11 12 13 14 15 16 17 18 19 20 0 
</DataArray>
</CellData>
<Points>
<DataArray type="Float64" NumberOfComponents="3" format="ascii">
0 1 1.61803398875 0 1 -1.61803398875 0 -1 1.61803398875 0 -1 -1.61803398875 1 1.61803398875 0 1 -1.61803398875 0 -1 1.61803398875 0 -1 -1.61803398875 0 1.61803398875 0 1 1.61803398875 0 -1 -1.61803398875 0 1 -1.61803398875 0 -1 0 0 0 0 0 -1.61803398875 -1 -1 -4 1 1 -4 1 -1 -4 -1 1 -4 
</DataArray>
</Points>
<Cells>
<DataArray type="Int64" Name="connectivity" format="ascii">
0 2 8 12 0 2 10 12 0 4 6 12 0 4 8 12 0 6 10 12 1 3 9 12 1 3 11 12 1 4 6 12 1 4 9 12 1 6 11 12 2 5 8 12 2 7 5 12 2 7 10 12 3 5 7 12 3 5 9 12 3 7 11 12 4 8 9 12 5 8 9 12 6 10 11 12 7 10 11 12 17 15 16 14 13 
</DataArray>
<DataArray type="Int64" Name="offsets" format="ascii">
4 8 12 16 20 24 28 32 36 40 44 48 52 56 60 64 68 72 76 80 85 
</DataArray>
<DataArray type="Int8" Name="types" format="ascii">
10 10 10 10 10 10 10 10 10 10 10 10 10 10 10 10 10 10 10 10 14 
</DataArray>
</Cells>
</Piece>
</UnstructuredGrid>
</VTKFile>
