<?xml version="1.0"?>
<VTKFile byte_order="LittleEndian" type="UnstructuredGrid" version="0.1">
<UnstructuredGrid>
<Piece NumberOfPoints="16" NumberOfCells="2">
<PointData>
<DataArray type="Float64" Name="Point_Data_1" format="ascii">
1 1 1 1 1 1 1 1 1 1 1 1 1 5 5 5 
</DataArray>
<DataArray type="Float64" Name="Point_Data_2" format="ascii">
41 13 16 81 51 31 18 12 19 21 11 19 16 45 35 58 
</DataArray>
</PointData>
<CellData>
<DataArray type="Float64" Name="Cell_1" format="ascii">
1 2 
</DataArray>
<DataArray type="Float64" Name="Cell_2" format="ascii">
10 20 
</DataArray>
</CellData>
<Points>
<DataArray type="Float64" NumberOfComponents="3" format="ascii">
0 0 0 5 0 0 0 5 0 5 5 0 0 0 5 5 0 5 0 5 5 5 5 5 2 2 5 7 2 5 2 7 5 7 7 5 2 2 10 7 2 10 2 7 10 7 7 10 
</DataArray>
</Points>
<Cells>
<DataArray type="Int64" Name="connectivity" format="ascii">
0 1 2 3 4 5 6 7 8 9 10 11 12 13 14 15 
</DataArray>
<DataArray type="Int64" Name="offsets" format="ascii">
8 16 
</DataArray>
<DataArray type="Int8" Name="types" format="ascii">
11 11 
</DataArray>
</Cells>
</Piece>
</UnstructuredGrid>
</VTKFile>
